40
Lattice="12.377193838899698 -0.01584445998298346 0.008281718271756928 0.0 11.897161653920096 0.6389566730848469 0.0 0.0 12.58409661301862" Properties=species:S:1:pos:R:3:momenta:R:3:forces:R:3 energy=-11154344.0081461 free_energy=-11154344.328506809 stress="0.00138502 -0.00022084 0.00027629 -0.00022084 -0.00584613 0.0003046 0.00027629 0.0003046 0.00161056" virial="-2.5665140361951804 0.4092279965295401 -0.5119797281341543 0.4092279965295401 10.833182699471292 -0.56443962933752 -0.5119797281341543 -0.56443962933752 -2.984451376972542" config_type=40_alpha pbc="T T T"
Pb      -0.25658984      -0.08175337      -0.09385919      -0.70094213      -2.09245199       4.80895355       0.49021258       1.25964988       0.62115156
I        2.94700031      -0.88863032      -0.55723276       0.91306619      -6.55634500       3.48466302       0.37686316       0.13386555       0.12924682
I        1.01251434       2.91094053      -0.21659196       4.05079463      -0.67717925       2.58783615      -0.21550874       0.07305196       0.02109066
I        0.63743516      -0.66155205       3.02169482      -2.12633307       2.44759959      -0.94570849      -0.17114215       0.29305745       0.19287960
Cs       2.62750467       2.88650398       2.99502538      -0.02464622      -1.28321254      -1.14950867       0.60201078      -0.20094812      -0.51423234
Pb       0.04348635       0.27831709       6.48028598       1.73212627      -1.97784483      -0.45262297       0.22889755      -0.92511351      -0.42436020
I        3.03233541      -0.48002750       6.99651706      -1.95654719      -0.48035034       2.90822259       0.18285186       0.10453136      -0.14173341
I        0.74468454       2.98941997       5.70770320       0.00380550       3.78585828       0.91029989      -0.30088183       0.39418382       0.62471712
I       -0.38758141       0.11798914       9.45597466       1.02422832       1.53773949       4.70375250      -0.15287580       0.10303505      -0.24026942
Cs       3.09756297       3.33066200       8.96321136      -2.57781598      -2.11215463       2.64389509      -0.04639468      -0.32506119       0.16886944
Pb      -0.18226376       5.75885658       0.37684853       3.35884439       0.57415153      -1.53223921       0.26440015       0.08863899      -0.18617033
I        3.02694687       6.05065797       0.78571709       0.13445359       0.15748018      -1.16048556      -0.05815688       0.21046191      -0.09931665
I       -0.53162985       9.05156745       0.44130411      -2.11863139      -2.87872501      -1.83497402      -0.29112677      -1.80547883      -0.12700971
I        0.05576480       6.16891357       3.51703391      -1.56015429      -4.23499566      -0.02688633      -0.13950462      -0.03702904      -0.00642671
Cs       3.16876966       8.41146069       3.65103812      -1.19952877       2.48404813      -0.76703796      -0.05883160       0.23780672       0.05821522
Pb      -0.21878581       6.04516668       6.60146530      -3.03767832      -0.47750034      -6.90406867       0.16168086      -0.53260256       0.27896030
I        2.87220999       6.47953904       7.29924391       2.54903489       1.90400261       2.26335239       0.03938042      -0.08064017      -0.69100422
I       -0.94300584       8.79979712       6.70787444      -1.30346130       3.66607839       0.48679582       0.01983357       0.68126377       0.29476758
I       -0.21509737       5.64917701       9.85256770       3.67463467       8.02081383       1.73837073       0.05164019       0.20150411      -0.23471217
Cs       3.34983985       8.57023728       9.98023557       0.42255912       1.74628569      -2.79152205       0.07349729       0.18882849       0.36037337
Pb       6.02608737      -0.19263516      -0.12399853      -2.78497999      -0.71105765       0.99195686      -0.24854923       0.25241583      -0.17671059
I        9.21907263       0.79601710       0.24367012       1.89491133      -0.78091429      -0.22288137       0.42738858      -0.51401820       0.04857130
I        6.57632410       2.79112891       0.69398574      -0.06434149      -2.30000788      -2.00121140      -0.82635403       0.65625225       0.17025682
I        5.72762715      -0.69353240       2.88099271      -3.39391595       1.28688773      -0.73087059       0.06943325       0.07918764       0.26113438
Cs       9.04158058       3.76388499       3.49904218      -3.22122885      -1.25999769      -0.46679954       0.00890306      -0.29629570      -0.25356569
Pb       6.29748161       0.07288505       6.18635842       2.41296011      -5.51835235       1.81572870      -0.30619856      -0.21481614       0.26774660
I        9.34392982       0.38805428       6.02899690       5.04668718       2.11292578      -3.37922958      -0.16670111       0.20563437      -0.15449216
I        6.01354622       3.12937407       5.87680187       3.83704201       3.29874382      -0.20154940      -0.54869643      -0.88928499      -0.64887117
I        6.19456663       1.26155883       9.20520200      -0.01145323      -1.58919272       0.59671506       0.08898280      -0.46102911       0.09609505
Cs       9.32602311       3.16867503       9.90123023      -1.43545132       4.34912778       0.44453658      -0.05948894      -0.22959527       0.08363314
Pb       6.01414415       5.93120726       0.50905607      -1.16075528      -0.53429062       2.81176505       0.24030355      -0.48715755       0.05408400
I        9.20808568       5.51629645       0.14635153       0.48566474       0.57284755      -2.23553943       0.08384495       0.04563235       0.13014834
I        6.98947585       8.80172711       0.23604146       1.90617341      -1.69606879      -0.46477242       0.05876952       0.27929005      -0.06714445
I        6.53541283       6.60305166       3.64589787       3.17889470       1.56570444      -2.17879454      -0.02938321      -0.05059160      -0.12653994
Cs       9.35963966       9.42376351       3.89745201      -2.52607803      -2.41409468       2.30300974      -0.08705106       0.12748099      -0.33452581
Pb       6.19621184       5.83766987       6.70226517       2.69459334      -0.92106180       5.83681212      -0.30621770       1.25528639       0.28935154
I        9.06015986       5.04080257       6.77194130      -0.34935290       0.59607328      -5.17495876       0.70045510       0.23230515       0.21421525
I        7.07920753       8.94735588       6.83025118      -2.55329807       0.87724729      -2.08452569      -0.07685993       0.01481227       0.28405839
I        6.23914567       5.85584137       9.93296138      -2.41909695       3.92385335      -2.23371148      -0.09891917      -0.05381818      -0.07321183
Cs       9.48258556       8.55200135      10.09427472      -2.79478367      -4.41167067      -2.39676772       0.01949323      -0.01469619      -0.14926968
40
Lattice="12.4021029069164 -0.40286741261419035 0.21968632923571046 0.0 12.278435350291804 0.09181405086802746 0.0 0.0 12.6546316592349" Properties=species:S:1:pos:R:3:momenta:R:3:forces:R:3 energy=-11154343.7261846 free_energy=-11154343.97969384 stress="0.00577297 -0.00073333 -0.00040368 -0.00073333 0.00285682 -6.671e-05 -0.00040368 -6.671e-05 0.00318857" virial="-11.124670785932816 1.4131469291280074 0.7779023800340829 1.4131469291280074 -5.505170128143501 0.1285519911119542 0.7779023800340829 0.1285519911119542 -6.144461434565189" config_type=40_alpha pbc="T T T"
Pb      -0.08386875      -0.14474073      -0.02738167      -0.54616944       3.35996465       1.82498427       0.14566986       0.35321000       0.09705770
I        3.27053411      -0.53930978      -0.29466874      -1.91824443       5.42865690      -2.88266433      -0.34002722      -0.21288143       0.10788966
I        0.79325412       3.01608405       0.24692564      -1.63107161      -4.43079665       0.61448365      -0.05380469      -0.13175661      -0.15967326
I       -0.19119004       0.03824487       3.08420699      -7.89694004      -1.37077437       1.37116119      -0.05848456       0.18852817      -0.05705927
Cs       2.43680662       2.56502036       3.59570273      -4.87716060       6.04857164       2.63286289       0.13676651       0.28014775       0.09276159
Pb      -0.14688945       0.03385154       6.65235477       2.23680885      -2.49198747      -1.48282567       0.19541514       0.31058789      -0.36349475
I        3.02821858      -0.51964106       6.41822681       4.23705643      -1.92109820      -2.06307103      -0.00124396       0.06750576       0.27016761
I        0.68844312       3.19870154       6.91505263      -1.24743652      -2.11042851       0.52607649      -0.02836720      -0.15591907      -0.13356400
I       -0.55572778       0.52954374       9.56922272      -1.10529948      -1.36598583      -3.76277534       0.26956572      -0.28408407       0.20067246
Cs       3.50300099       2.34236182       9.91285737       1.80931605      -1.29327394      -0.17080579      -0.54727420      -0.06021777      -0.62085466
Pb       0.23470627       6.31380483      -0.01324933      -0.20989821       1.33076837       2.43582062       0.12618527      -0.50302390      -0.30161579
I        3.26980783       7.40261897       0.44786001       0.09962953       2.75790355       2.33847775      -0.29593312      -0.11821173      -0.11486135
I       -1.12154817       9.01467653      -0.14186356       1.38666747       2.73481468       0.69350630       0.13468777       0.37512412       0.20923943
I       -0.45739590       5.83056722       3.38182468      -1.76172347       0.75612153       4.23965550      -0.12610194      -0.07461525      -0.81868433
Cs       2.45059544       9.90446758       3.47823163      -1.10672984       4.25819547      -2.74768048       0.25739990      -0.45238206      -0.13157384
Pb       0.14136644       6.15718542       6.23234226       2.17944864       0.42811596      -2.55199002       0.48749369       0.18878649       0.47564244
I        3.25503609       6.24893752       5.46699605       2.24985008      -2.87443841       0.14456673       0.07970910       0.15989005       0.15240721
I       -0.68097825       9.51264630       5.67878166       3.10119950      -0.61760715      -4.27693490       0.21067514      -0.66073699       0.49832385
I        0.77442617       6.40524066       9.43709565       0.08141346      -3.54451977       0.96857840      -0.06707348       0.14826996       0.53938879
Cs       4.04454953       9.18928286       9.50552524       3.72668939      -0.50258309      -2.83420622      -0.27039186      -0.33929170       0.12563782
Pb       6.16769684       0.08694240       0.61325931       0.77538651       1.33310901      -0.44355373       0.09525653      -0.70378383      -0.17236386
I        9.28490675       0.05934322       0.17656795       5.18139811       2.73237632      -2.38440469       0.03397296       0.19596932       0.14504716
I        5.21986279       2.91171483       0.07289800       2.38598620       2.60481388       3.67278322       0.43350635       0.27743935       0.71445583
I        6.30912008      -0.95816678       3.58868446       1.53176322      -0.73690560      -0.94852664      -0.32580995       0.29960519      -0.30374548
Cs       8.65975665       3.23641363       2.89413350       0.96601369       5.86804020       3.60675843       0.07452832       0.00314239       0.10007183
Pb       6.25533064      -0.03071954       6.78323599      -5.81566012      -1.63573416       0.90937185      -0.25528653      -0.13864731      -0.64613977
I        9.25864770       0.26139332       6.29815278      -4.40845985       2.70849531      -0.02546359       0.12794626       0.04918994      -0.21342620
I        5.73286154       2.75623981       5.88866937       1.10442441      -2.51202872       2.49963885       0.05286676       0.37198842       0.05232985
I        6.45623762      -0.52606315       9.72087844      -0.68160477       0.25466945       1.78904671       0.08462717       0.51418843       0.51941977
Cs       9.04136037       2.23769200       9.32907538       0.04413921      -0.38523909       0.04659618      -0.11678337       0.20821519       0.26865475
Pb       6.10204109       6.07687911       0.13444892       0.61558614       0.79921457      -3.27692144       0.19886554       0.26506576      -0.12134925
I        9.37747212       4.72647170      -0.48003321      -0.54560142      -2.05129847      -3.18750516      -0.01207508       0.26520879       0.13751710
I        7.07380588       9.01881276      -0.13249659      -3.46331112      -0.78642140       0.38472032      -0.12490270      -0.06664486      -0.06941329
I        6.42887510       6.42333978       3.03860909       0.86798230      -0.65603525      -2.74623133       0.24152382      -0.14468941       0.34436329
Cs       9.36157148       9.45248931       3.35928504       1.39254186      -3.48590589       2.24091842      -0.22464269      -0.13255477      -0.30064665
Pb       6.51642111       6.24943523       6.69623784      -0.72799025       6.97444083       0.34006374      -0.36478242      -1.17544909      -0.86272532
I        9.55286825       5.09870736       7.15382370       1.77411214      -2.81147774       2.86128205      -0.44636683       0.12837427      -0.16497056
I        6.93909488       9.04468495       6.95740774       0.07465037      -9.09425247       1.19235365       0.20642446       0.46640569       0.12792371
I        5.64735963       5.41722724       9.37770285      -1.82965812      -3.91207921      -4.82956398       0.03670467       0.15660447       0.38453028
Cs       9.38332310       7.63275677       9.78865207       1.95089575       0.21259907       3.28141716       0.02956088       0.08144244      -0.00734051
40
Lattice="11.967273382023413 -0.4812083607522292 0.46678676611822884 0.0 12.971726711560045 -0.5585867355969052 0.0 0.0 12.287191350418036" Properties=species:S:1:pos:R:3:momenta:R:3:forces:R:3 energy=-11154342.7996268 free_energy=-11154343.13963769 stress="-0.00395287 -0.00161072 0.00162991 -0.00161072 0.0016693 -0.00142421 0.00162991 -0.00142421 -0.00241292" virial="7.539771007438187 3.072314535287231 -3.1089178654328564 3.072314535287231 -3.184051016784404 2.716562210875526 -3.1089178654328564 2.716562210875526 4.602444365554078" config_type=40_alpha pbc="T T T"
Pb      -0.34035029       0.41147858      -0.28173564      -1.30531260      -0.14551174       2.69377260       0.41746497      -0.16872180       0.65212529
I        2.94086005      -0.04241780      -0.21939253      -1.56226880       1.17819171       0.31822908      -0.31550890      -0.16551287       0.02650500
I        0.62394757       3.34026294      -0.63292243      -0.24534662      -0.80622124      -3.15202704      -0.16088515       0.21750575       0.26321055
I       -0.29858452       0.40564585       3.16118711       5.59102944      -0.57692299       0.70036148       0.01566027      -0.17941008      -0.51183134
Cs       3.11352668       4.17948764       2.54165089       1.39387045       1.67380820       0.41155293      -0.85258349       0.08710621       0.53366906
Pb      -0.02219977      -0.51208552       6.17315390       2.54828890      -1.79548039      -2.00047661       0.04698312       0.97092907      -0.54053456
I        3.14536904      -0.62975657       6.48790997      -2.80591160       0.30346732      -1.47875932      -0.71332565      -0.34175647      -0.18938067
I        0.10495694       3.20521073       5.91185903      -1.41236386       2.19293964      -4.56112420       0.10237182      -0.32593727       0.04101345
I        0.10188246      -0.74614348       9.11713019       1.73662871       2.68785439       0.35319284      -0.03869963       0.17674459       0.73803264
Cs       2.36770812       2.18018781       8.78595161      -1.85754198       1.76109622       1.06127972       0.27614416       0.13437040      -0.11544791
Pb       0.04632981       6.70790995      -0.16404158       1.65115172       0.57138202      -3.98733084      -0.80255770       0.00513053       0.14355907
I        2.88678770       6.80609057       0.13865084      -2.36867648      -0.02585461       2.28542993       1.00136637       0.39067523       0.21396557
I       -0.48664871      10.10218305      -0.12245882      -0.34224020      -2.05867319      -2.87050761       0.21848728      -0.22993487       0.00265223
I       -0.29068898       6.53803750       2.99845365       0.03494847      -0.64101090      -0.07125017       0.03162074      -0.09594565      -0.30682743
Cs       2.57056992      10.03694665       2.57726755       0.67960051      -4.14425647       4.88843401      -0.03022413       0.02976371      -0.04546597
Pb      -0.01416651       6.10530783       5.91706327      -1.18214277       0.04356315       0.33192980       0.12672964       0.45537337       0.53160021
I        3.02419264       6.98020314       5.85189583      -3.48573156       1.69226672       2.01995728       0.34753318      -0.12108679      -0.14537398
I       -0.24438287       9.60935129       5.67728747      -5.04072556       0.72448208       1.68729704       0.04838135      -0.57114991      -0.22677561
I        0.77545099       6.56663778       9.29802435      -1.70364655       3.32084706      -0.56394073      -0.21433107       0.02970598      -0.93443731
Cs       3.46242488       9.11056261       8.89276190      -1.91301580       1.91409812      -0.33596849       0.13624224       0.08583297       0.06068473
Pb       5.92326320       0.14467497       0.07488055       3.13903737      -0.33815108      -6.43142401       0.08211020      -0.27861856      -0.05207041
I        8.95415996       1.32451907       0.41979745      -3.07938007      -0.64222287      -4.73962159       0.06863018      -0.35646170      -0.46702271
I        5.76245913       2.90806272       1.07537349       1.17241491      -0.55812079      -5.54320010       0.41910378      -0.05385720      -0.27705469
I        5.85405892      -1.13046144       2.81454478       2.23439300      -2.18398590       1.73434495       0.14411345      -0.04955285       0.56798345
Cs       8.97874239       2.72238495       3.54553786       2.78987743      -0.58953002      -0.43260297       0.00054073       0.26904057       0.39926981
Pb       6.21772763      -0.66724941       6.48066349       5.12150461      -1.44688308       2.48053289       0.31067352      -0.02787405      -0.07040259
I        8.90587217       0.72199540       6.76573454      -0.86251464      -5.56911923       5.10345027       0.25484287      -0.23296514      -0.14015734
I        4.80679464       2.68720357       5.52037848      -2.11719276       0.26860847      -3.96272522      -0.13390854      -0.82077505      -0.05413639
I        5.74662588       0.78016870       9.20728046       3.29838416       2.47374755       1.24096359       0.17824255      -0.03610331      -0.11707600
Cs       8.89359065       3.16372384       9.47974806       0.71916425       6.27126365       2.04413282      -0.02558718       0.22674152       0.01142417
Pb       5.95788573       6.16557033       0.02165216       7.24479322      -1.59889334       3.40298511       0.02497983      -0.43423467      -0.19501479
I        8.98741451       6.35300036       0.05731782      -4.75712999       2.42726653      -0.20182777       0.01178600      -0.31785469      -0.15027353
I        6.35797238       8.89585434      -0.80217134      -0.76257257      -4.60948238      -0.56267734      -0.11030195       0.90338730      -0.16473961
I        6.18703097       6.33482804       2.99831866      -0.04617745      -0.99350547       0.11070257       0.03941073       0.12127793       0.43828486
Cs       9.25042005       9.18336282       3.29312131       1.56710739       0.64894301       2.88038357      -0.23535794      -0.11004316      -0.04854083
Pb       5.66806244       5.27748240       6.20901152      -3.03671547      -2.91013619       4.35975859       0.37323000       1.22963333      -0.64405547
I        8.98500385       6.22196929       6.48463188      -0.97462072      -0.41956521       0.30713073      -0.32105946      -0.34646070       0.09461502
I        7.29074175       9.51736513       6.60355076      -2.34169558       3.05924594      -2.17688719      -0.34694163       0.41362784      -0.06189793
I        5.82655249       5.81833008       9.04515670       3.55831234      -0.22015549       2.66741601      -0.08707665      -0.15550441       0.60568760
Cs       9.80830971       8.96226019       9.32226270      -1.27758324      -0.93938917      -0.01088662      -0.28829993      -0.32708512       0.13423434
40
Lattice="12.27529422346221 -0.3738421039130903 0.5767812260344444 0.0 13.094744151240846 -0.9509488385008233 0.0 0.0 12.28368901354716" Properties=species:S:1:pos:R:3:momenta:R:3:forces:R:3 energy=-11154342.2016497 free_energy=-11154342.442409744 stress="0.00032388 -0.00019602 0.00099442 -0.00019602 0.0073221 -0.00178228 0.00099442 -0.00178228 0.00142898" virial="-0.6395019474606587 0.38704202711262914 -1.963485014801248 0.38704202711262914 -14.457506513219984 3.5191167436093083 -1.963485014801248 3.5191167436093083 -2.8215249255351735" config_type=40_alpha pbc="T T T"
Pb       0.23701579      -0.17404538       0.09790401       0.94023657       2.82200935       6.11257818      -0.50443208       0.05785423      -0.24003324
I        3.09561990       0.24958236       0.05025389       5.48078516       3.44549850       0.51019140       0.41329855      -0.11243379       0.03094593
I       -0.19560640       3.45448392      -0.00779122      -0.52207007      -1.39058593      -1.08944011      -0.03111374      -0.34746393      -0.22317997
I        0.92222590       0.04772643       3.12274491      -2.29342451       0.74341237      -1.77447358      -0.11118990       0.06032717      -0.07025524
Cs       2.26592118       3.63413594       2.49590119       0.53349366      -5.09335833       1.33571898      -0.03539891       0.12192490       0.54410512
Pb       0.12974537       0.00535169       6.03598966       1.67420738       2.75933666      -3.28946092      -0.22965071       0.05764438       0.32686051
I        2.90995213      -0.75350179       6.58129178       1.39600799       5.09557773      -0.15153766       1.25581513      -0.10313816      -0.13065473
I        0.35046316       3.75243155       6.22731655      -1.72702566       0.07697272       5.63215450      -0.21970314      -0.65894549      -0.00707692
I        0.76379495       0.46005185       9.29027177      -3.02899645       4.82315141       1.31565701      -0.58346786      -0.08988800       0.15629624
Cs       3.27005388       2.89105476       8.69020215       1.70061081       5.08953625       0.23727381       0.03670665       0.19940899      -0.09818138
Pb       0.29334233       6.64735179      -0.64100554      -4.93288335      -0.46423186       2.14297809      -0.07906297      -0.19781169       0.16444469
I        3.29699632       7.58761980      -0.17318997      -1.37962835      -4.74464254      -0.31493418      -0.23833208      -0.52389271       0.32508325
I        0.21086549       9.60323327      -0.29616818      -0.36443030      -4.98349696       1.75175537      -0.21626812       0.92581601      -0.02086109
I       -0.71727761       6.64370558       2.37201625       3.02277528      -1.23557319       0.82778278       0.38253687      -0.17086567       0.15918517
Cs       3.12748844       9.52528893       3.18125767       0.94674683       0.90078707      -1.31365226      -0.06762703      -0.10227053       0.00624899
Pb      -0.14667837       6.69884470       5.59355764       1.32408279      -1.47136408       3.58304053       0.01083728      -0.20329421      -0.39022651
I        2.87859862       6.32744155       5.55945716      -1.18793783      -0.27640888      -1.44599631       0.12762366       0.43850057      -0.11998153
I       -0.33561571      10.00999809       5.21588031       0.61102366      -0.68303327      -1.37024085      -0.13335847       0.05180623      -0.11744843
I       -0.46908486       7.20751548       8.46090088      -3.62203995      -1.60904250      -3.31613086       0.07108514       0.05910418       0.69087029
Cs       2.93657707      10.57432680       9.03931444       1.80643020      -3.61058009       4.73954718       0.18996919      -0.26009002      -0.13487342
Pb       6.45982005       0.13235868       0.24793873      -1.92176592      -0.30447888       6.60361815      -0.37653849      -0.53961909      -0.82129098
I        9.37888750       0.01841978      -0.33554780       1.18516532      -1.17863422      -0.09924526       0.05594216       0.16489395      -0.06983855
I        5.16532943       3.04764035       0.66541452      -0.41161366       1.04315966       2.08525332       0.78792590       0.50284020      -0.29578775
I        7.33257725      -0.53749162       2.93978259       2.36250326       5.93458596       2.62807586       0.07398878      -0.17313468       0.95697182
Cs       9.11516153       2.82485283       2.98608091      -2.81077144      -0.77868251      -2.75531557      -0.01422952       0.20051677       0.04101948
Pb       6.55372078      -0.32778941       6.27387271       0.81146068      -0.02555046      -1.49140989      -0.11298251       0.02710361       0.61545444
I        9.50611394       0.29639752       7.39481363       0.16350772       2.15636748      -3.02426487      -0.80446045      -0.20386470      -0.40311341
I        5.33067628       2.92018002       5.21483729       3.02496747       1.77674767       2.03001649       0.06736884      -0.46300825       0.17527324
I        5.99362104       0.61659817       9.17051979      -0.39821119      -4.56850967      -2.92913294       0.05828311      -0.12676232      -0.01153454
Cs       9.92780010       3.01343097       9.68998120       2.25232053      -7.59610031      -0.37671816       0.09008536       0.14896812      -0.01664923
Pb       6.14207763       6.08021733       0.07137940      -3.73807872       4.10090031      -5.61384223      -0.28782163       0.15159631      -0.24620193
I        9.31062107       6.31446731      -0.00491294       3.57376265      -2.08123369      -2.64511723      -0.38563260      -0.08272626      -0.25780066
I        6.04630457       9.62531848      -1.18894433       2.71281003       3.57726991       0.42189002       0.31682151       0.55128035       0.18938319
I        6.03439478       6.27959227       3.22780999      -2.99175508      -0.10829074      -4.46991161       0.22336718       0.41540813      -0.74654499
Cs       9.18229942       9.01089865       2.90434214      -0.44778854       3.48200333      -0.12384385      -0.05200851       0.03062868      -0.05191786
Pb       5.97705944       5.67447889       6.10399042       1.75881279       2.19188623      -3.09967863      -0.07108427       0.08001636       0.46403585
I        8.98679017       5.03805872       6.30400599       2.98482658      -2.58240515       0.04875760       0.06004575       0.09772317       0.02495004
I        6.22022481       9.74518280       6.28173267      -2.55612505      -1.63168300      -2.36644468      -0.07773276       0.34686074      -0.50399345
I        5.33795674       6.12949105       9.27815472      -4.47829254      -1.11626990       4.08269231       0.18921921      -0.28942472      -0.14429376
Cs       8.37760339       8.29646007       8.63510306      -1.45369878      -2.48504647      -3.02818994       0.22117550      -0.04158882       0.25061134
40
Lattice="12.636982536555879 -0.04758769057800026 0.49268279322058184 0.0 12.350061597120082 -0.8763376264060612 0.0 0.0 12.359446002953234" Properties=species:S:1:pos:R:3:momenta:R:3:forces:R:3 energy=-11154343.2471634 free_energy=-11154343.543322943 stress="0.00377875 -4.252e-05 0.00127064 -4.252e-05 -0.00231787 -0.00166092 0.00127064 -0.00166092 0.00031318" virial="-7.288861091318485 0.08201716800605015 -2.4509476565194626 0.08201716800605015 4.470957977567814 3.203761869346397 -2.4509476565194626 3.203761869346397 -0.6040954063060862" config_type=40_alpha pbc="T T T"
Pb      -0.06660807       0.10647741       0.20686241      -1.81010516       5.75304893      -5.71757759      -0.02332144      -0.62019071      -0.19397750
I        3.37287998       0.23301550       0.44214141       0.70442848      -2.26362123       2.81813026      -0.97266738      -0.01934395      -0.01229571
I       -0.20201506       2.93010507      -0.15084500       0.28539139      -2.29368356      -4.20972512       0.20081990       0.93535360      -0.13121161
I        0.06485907       0.29864393       3.32133412      -1.67339594       0.36144070       2.69296680      -0.12825869      -0.07642469      -0.53520792
Cs       2.95133914       3.04166081       3.48319659       1.38938098      -1.35310448      -1.97958223      -0.00432045      -0.03546166      -0.11390542
Pb       0.01585184      -0.31354446       6.32790984       2.31821909       5.25472812       5.59728943       0.28303109       0.32969396       0.29593182
I        3.40409525      -0.08609451       5.48503194      -2.33615479      -5.50121096      -0.89801331      -0.37313720      -0.15363449       0.33930215
I        0.63534095       2.84734223       6.36106324      -0.74222129      -2.54339283       0.86842670      -0.11393622       0.28907776       0.20865714
I        0.85831502      -0.71512813       9.30750619      -0.04553646      -6.32905186      -1.38904175      -0.04543985       0.14748390       0.29005148
Cs       3.51276828       2.18045037       9.23446962       0.08504694      -2.75429741       2.32625031      -0.13046094       0.03232466      -0.07112121
Pb      -0.51061574       6.27621190      -0.20593558      -3.49846028      -5.05485738       0.20069852       0.61265947      -0.43489826      -0.39365517
I        2.97533298       6.27376005       0.02130373       0.83436113       1.29800592      -1.59515647      -0.52601859      -0.03124726       0.14344502
I        0.13490938       9.19158832      -0.27122999       2.28210540       1.93194341      -0.35497671      -0.10108120       0.37550052       0.16875778